 Gaussian 16, Revision A.03,
 Gaussian 16:  ES64L-G16RevA.03 25-Dec-2016

 -------------------------
 # td PBE1PBE/6-311g(2d,p)
 -------------------------

 -
 1
 -
 Symbolic Z-matrix:
 Charge =  1 Multiplicity = 1

                         Standard orientation:
 ---------------------------------------------------------------------
 Center     Atomic      Atomic             Coordinates (Angstroms)
 Number     Number       Type             X           Y           Z
 ---------------------------------------------------------------------
      1          6           0        3.297599   -1.258858   -0.027287
      2          6           0        4.301468   -2.224490   -0.003660
      3          6           0        5.624559   -1.792225   -0.066963
      4          6           0        5.925600   -0.425794   -0.148923
      5          6           0        4.920374    0.538197   -0.174170
      6          6           0        3.589878    0.108817   -0.118253
      7          7           0        2.433480    0.904855   -0.146122
      8          6           0        1.259185    0.216744   -0.039411
      9         16           0        1.557463   -1.512127    0.053781
     10          6           0       -1.259226    0.216766    0.039235
     11         16           0       -1.557517   -1.512095   -0.053982
     12          6           0       -3.297638   -1.258836    0.027351
     13          6           0       -3.589912    0.108845    0.118295
     14          7           0       -2.433509    0.904884    0.145983
     15          6           0        2.510520    2.373498   -0.257278
     16          6           0        2.567058    3.073821    1.101411
     17          6           0       -2.510435    2.373539    0.257318
     18          6           0       -2.566800    3.073963   -1.101321
     19          6           0       -4.301518   -2.224461    0.003784
     20          6           0       -5.624601   -1.792190    0.067147
     21          6           0       -5.925637   -0.425757    0.149074
     22          6           0       -4.920407    0.538231    0.174239
     23          6           0       -0.000019    0.829020   -0.000064
     24          1           0        4.060446   -3.280377    0.063897
     25          1           0        6.427128   -2.522258   -0.049087
     26          1           0        6.962021   -0.106645   -0.191209
     27          1           0        5.176749    1.590135   -0.227954
     28          1           0        1.657513    2.708534   -0.851922
     29          1           0        3.398123    2.596990   -0.852579
     30          1           0        2.634856    4.156384    0.954087
     31          1           0        3.441960    2.752116    1.674238
     32          1           0        1.674616    2.863459    1.699221
     33          1           0       -1.657469    2.708440    0.852098
     34          1           0       -3.398096    2.597040    0.852516
     35          1           0       -2.634473    4.156527   -0.953938
     36          1           0       -3.441716    2.752389   -1.674203
     37          1           0       -1.674361    2.863537   -1.699113
     38          1           0       -4.060509   -3.280354   -0.063726
     39          1           0       -6.427168   -2.522228    0.049357
     40          1           0       -6.962056   -0.106604    0.191378
     41          1           0       -5.176775    1.590171    0.228011
     42          1           0        0.000001    1.909125   -0.000028
 ---------------------------------------------------------------------

 SCF Done:  E(RPBE1PBE) =  -1640.13924433     A.U. after   15 cycles

 Excitation energies and oscillator strengths:

 Excited State   1:      Singlet-A      3.3306 eV  372.25 nm  f=0.9764  <S**2>=0.000
      89 -> 90         0.70394
 This state for optimization and/or second-order correction.
 Total Energy, E(TD-HF/TD-DFT) =  -1640.01684603
 Copying the excited state density for this state as the 1-particle RhoCI density.

 Excited State   2:      Singlet-A      4.0069 eV  309.42 nm  f=0.0008  <S**2>=0.000
      89 -> 91         0.69854

 Excited State   3:      Singlet-A      4.1482 eV  298.89 nm  f=0.0290  <S**2>=0.000
      88 -> 90         0.67289
      89 -> 92        -0.18218

 The electronic state is 1-A.
 Alpha  occ. eigenvalues --  -89.18613 -89.18613 -14.58409 -14.58409 -10.45633
 Alpha  occ. eigenvalues --  -10.45631 -10.40136 -10.40135 -10.39620 -10.39620
 Alpha  occ. eigenvalues --  -10.38885 -10.38885 -10.36545 -10.35138 -10.35137
 Alpha  occ. eigenvalues --  -10.35091 -10.35091 -10.34245 -10.34244 -10.33929
 Alpha  occ. eigenvalues --  -10.33928 -10.33518 -10.33518  -8.16882  -8.16882
 Alpha  occ. eigenvalues --   -6.10598  -6.10598  -6.10228  -6.10228  -6.09787
 Alpha  occ. eigenvalues --   -6.09787  -1.16476  -1.16123  -1.01363  -1.01227
 Alpha  occ. eigenvalues --   -0.99595  -0.97224  -0.94111  -0.91422  -0.91197
 Alpha  occ. eigenvalues --   -0.89808  -0.88425  -0.87493  -0.84965  -0.79790
 Alpha  occ. eigenvalues --   -0.79750  -0.78910  -0.76209  -0.74198  -0.74110
 Alpha  occ. eigenvalues --   -0.72097  -0.69865  -0.66456  -0.66245  -0.65923
 Alpha  occ. eigenvalues --   -0.63672  -0.62418  -0.60866  -0.60813  -0.60015
 Alpha  occ. eigenvalues --   -0.59289  -0.58754  -0.58388  -0.58258  -0.56485
 Alpha  occ. eigenvalues --   -0.56318  -0.55786  -0.54575  -0.53313  -0.53224
 Alpha  occ. eigenvalues --   -0.52515  -0.51861  -0.50820  -0.50327  -0.50033
 Alpha  occ. eigenvalues --   -0.49351  -0.49123  -0.49087  -0.48865  -0.48101
 Alpha  occ. eigenvalues --   -0.47633  -0.46651  -0.44531  -0.43878  -0.41856
 Alpha  occ. eigenvalues --   -0.37898  -0.37208  -0.36728  -0.32782
 Alpha virt. eigenvalues --   -0.18711  -0.13891  -0.12914  -0.12323  -0.11486
 Alpha virt. eigenvalues --   -0.10753  -0.09120  -0.08007  -0.07978  -0.05450
 Alpha virt. eigenvalues --   -0.04837  -0.03510  -0.02834  -0.02315  -0.01587

 Mulliken charges:
               1
     1  C    0.000606
     2  C   -0.206458
     3  C   -0.049972
     4  C   -0.062202
     5  C   -0.154146
     6  C    0.325682
     7  N   -0.420231
     8  C    0.350947
     9  S    0.224805
    10  C    0.350954
    11  S    0.224804
    12  C    0.000597
    13  C    0.325681
    14  N   -0.420235
    15  C   -0.153409
    16  C   -0.280891
    17  C   -0.153406
    18  C   -0.280891
    19  C   -0.206455
    20  C   -0.049972
    21  C   -0.062197
    22  C   -0.154144
    23  C   -0.406015
    24  H    0.105226
    25  H    0.104354
    26  H    0.102777
    27  H    0.096258
    28  H    0.127729
    29  H    0.138363
    30  H    0.138516
    31  H    0.138082
    32  H    0.123002
    33  H    0.127733
    34  H    0.138360
    35  H    0.138513
    36  H    0.138083
    37  H    0.123002
    38  H    0.105226
    39  H    0.104354
    40  H    0.102778
    41  H    0.096256
    42  H    0.107933
 Sum of Mulliken charges =   1.00000

 Dipole moment (field-independent basis, Debye):
    X=              0.0000    Y=              3.0872    Z=              0.0002  Tot=              3.0872
 Quadrupole moment (field-independent basis, Debye-Ang):
   XX=            -56.2595   YY=           -107.9697   ZZ=           -152.5120
   XY=              0.0000   XZ=             -1.1587   YZ=             -0.0001

 Normal termination of Gaussian 16 at Wed Oct 25 12:54:43 2023.
