 Gaussian 16, Revision A.03,
 Gaussian 16:  ES64L-G16RevA.03 25-Dec-2016

 -------------------------
 # td PBE1PBE/6-311g(2d,p)
 -------------------------

 -
 2
 -
 Symbolic Z-matrix:
 Charge =  1 Multiplicity = 1

                         Standard orientation:
 ---------------------------------------------------------------------
 Center     Atomic      Atomic             Coordinates (Angstroms)
 Number     Number       Type             X           Y           Z
 ---------------------------------------------------------------------
      1          6           0        4.288580   -1.226410   -0.099993
      2          6           0        5.197859   -2.280494   -0.083900
      3          6           0        6.558232   -1.974340   -0.106695
      4          6           0        6.988747   -0.642065   -0.142172
      5          6           0        6.077993    0.412754   -0.159833
      6          6           0        4.712749    0.110342   -0.144185
      7          7           0        3.639165    1.015186   -0.171591
      8          6           0        2.403589    0.443251   -0.111697
      9         16           0        2.528609   -1.313696   -0.069695
     10          6           0       -2.594899    0.786965   -0.025970
     11         16           0       -3.859463    1.944130   -0.420763
     12          6           0       -5.106850    0.730735   -0.187808
     13          6           0       -4.530039   -0.497436    0.170722
     14          7           0       -3.128283   -0.429510    0.275260
     15          6           0        3.851203    2.473891   -0.223655
     16          6           0        3.946648    3.111184    1.163512
     17          6           0       -2.357415   -1.578270    0.783694
     18          6           0       -1.960428   -2.572280   -0.309454
     19          6           0       -6.486579    0.875917   -0.320338
     20          6           0       -7.289151   -0.239683   -0.090311
     21          6           0       -6.718404   -1.469940    0.262856
     22          6           0       -5.339310   -1.615847    0.396422
     23          6           0        1.189322    1.137534   -0.080870
     24          6           0       -0.065545    0.525426   -0.047357
     25          6           0       -1.262766    1.237195   -0.052991
     26          1           0        4.858204   -3.310726   -0.053193
     27          1           0        7.287268   -2.778005   -0.093771
     28          1           0        8.051228   -0.421039   -0.153713
     29          1           0        6.431871    1.437365   -0.177623
     30          1           0        3.038338    2.907136   -0.810234
     31          1           0        4.764597    2.639278   -0.798933
     32          1           0        4.116811    4.187724    1.061647
     33          1           0        4.776116    2.686672    1.737120
     34          1           0        3.024710    2.962123    1.734019
     35          1           0       -2.981439   -2.063816    1.538520
     36          1           0       -1.489670   -1.178912    1.311727
     37          1           0       -1.395597   -3.398621    0.134330
     38          1           0       -1.340000   -2.104748   -1.080591
     39          1           0       -2.843123   -2.990335   -0.802324
     40          1           0       -6.922631    1.830845   -0.595195
     41          1           0       -8.366323   -0.152863   -0.188984
     42          1           0       -7.358535   -2.329561    0.433487
     43          1           0       -4.916644   -2.578641    0.660259
     44          1           0        1.226453    2.221586   -0.072480
     45          1           0       -0.090592   -0.559758   -0.052376
     46          1           0       -1.174748    2.317040   -0.149911
 ---------------------------------------------------------------------

 SCF Done:  E(RPBE1PBE) =  -1717.46952836     A.U. after   15 cycles

 Excitation energies and oscillator strengths:

 Excited State   1:      Singlet-A      2.7559 eV  449.89 nm  f=1.4961  <S**2>=0.000
      96 -> 97         0.70788
 This state for optimization and/or second-order correction.
 Total Energy, E(TD-HF/TD-DFT) =  -1717.36825219
 Copying the excited state density for this state as the 1-particle RhoCI density.

 Excited State   2:      Singlet-A      3.8481 eV  322.20 nm  f=0.0481  <S**2>=0.000
      95 -> 97         0.68314

 Excited State   3:      Singlet-A      3.9033 eV  317.64 nm  f=0.0179  <S**2>=0.000
      93 -> 97        -0.28555
      94 -> 97         0.62667

 The electronic state is 1-A.
 Alpha  occ. eigenvalues --  -89.17422 -89.17338 -14.57862 -14.57361 -10.44421
 Alpha  occ. eigenvalues --  -10.44024 -10.39447 -10.39241 -10.38998 -10.38477
 Alpha  occ. eigenvalues --  -10.38150 -10.38081 -10.37166 -10.34878 -10.34522
 Alpha  occ. eigenvalues --  -10.34510 -10.34421 -10.34339 -10.34275 -10.33655
 Alpha  occ. eigenvalues --  -10.33448 -10.33365 -10.33220 -10.33196 -10.32401
 Alpha  occ. eigenvalues --   -8.15697  -8.15623  -6.09406  -6.09343  -6.09042
 Alpha  occ. eigenvalues --   -6.08982  -6.08610  -6.08517  -1.15475  -1.15203
 Alpha  occ. eigenvalues --   -1.00551  -1.00364  -0.98465  -0.97349  -0.94918
 Alpha  occ. eigenvalues --   -0.91661  -0.90574  -0.90118  -0.88431  -0.87568
 Alpha  occ. eigenvalues --   -0.86706  -0.83397  -0.79190  -0.78855  -0.78353
 Alpha  occ. eigenvalues --   -0.75818  -0.74365  -0.73377  -0.72396  -0.69719
 Alpha  occ. eigenvalues --   -0.69413  -0.65821  -0.65168  -0.64982  -0.62465
 Alpha  occ. eigenvalues --   -0.61772  -0.59781  -0.59654  -0.59483  -0.59131
 Alpha  occ. eigenvalues --   -0.58390  -0.58052  -0.57364  -0.56951  -0.56000
 Alpha  occ. eigenvalues --   -0.55478  -0.53976  -0.53339  -0.52630  -0.52259
 Alpha  occ. eigenvalues --   -0.51793  -0.51461  -0.50670  -0.50216  -0.49466
 Alpha  occ. eigenvalues --   -0.48791  -0.48687  -0.48488  -0.48191  -0.48017
 Alpha  occ. eigenvalues --   -0.47580  -0.46771  -0.46617  -0.44278  -0.43322
 Alpha  occ. eigenvalues --   -0.43079  -0.39403  -0.36416  -0.36240  -0.36097
 Alpha  occ. eigenvalues --   -0.30675
 Alpha virt. eigenvalues --   -0.19511  -0.12013  -0.11901  -0.11571  -0.11176
 Alpha virt. eigenvalues --   -0.10578  -0.10271  -0.08818  -0.06213  -0.05540
 Alpha virt. eigenvalues --   -0.04505  -0.04062  -0.03020  -0.02342  -0.01411

 Mulliken charges:
               1
     1  C    0.018470
     2  C   -0.211549
     3  C   -0.048369
     4  C   -0.066853
     5  C   -0.151369
     6  C    0.323651
     7  N   -0.430099
     8  C    0.380775
     9  S    0.170860
    10  C    0.348221
    11  S    0.208248
    12  C   -0.001990
    13  C    0.328417
    14  N   -0.407448
    15  C   -0.145493
    16  C   -0.283348
    17  C   -0.170387
    18  C   -0.284008
    19  C   -0.207491
    20  C   -0.046004
    21  C   -0.067236
    22  C   -0.157298
    23  C   -0.269979
    24  C   -0.005725
    25  C   -0.252223
    26  H    0.100527
    27  H    0.101221
    28  H    0.100215
    29  H    0.095500
    30  H    0.131180
    31  H    0.135517
    32  H    0.136711
    33  H    0.133554
    34  H    0.127240
    35  H    0.139100
    36  H    0.135590
    37  H    0.135947
    38  H    0.126595
    39  H    0.135905
    40  H    0.105825
    41  H    0.102710
    42  H    0.100565
    43  H    0.095981
    44  H    0.089135
    45  H    0.103138
    46  H    0.096069
 Sum of Mulliken charges =   1.00000

 Dipole moment (field-independent basis, Debye):
    X=              0.5165    Y=              0.0749    Z=              0.4497  Tot=              0.6889
 Quadrupole moment (field-independent basis, Debye-Ang):
   XX=            -32.0373   YY=           -123.8008   ZZ=           -164.7232
   XY=              9.7188   XZ=             -0.8884   YZ=             -3.8825

 Normal termination of Gaussian 16 at Wed Oct 25 13:13:31 2023.
