 Gaussian 16, Revision A.03,
 Gaussian 16:  ES64L-G16RevA.03 25-Dec-2016

 -------------------------
 # td PBE1PBE/6-311g(2d,p)
 -------------------------

 -
 5
 -
 Symbolic Z-matrix:
 Charge =  0 Multiplicity = 1

                         Standard orientation:
 ---------------------------------------------------------------------
 Center     Atomic      Atomic             Coordinates (Angstroms)
 Number     Number       Type             X           Y           Z
 ---------------------------------------------------------------------
      1          6           0      -11.734347   -1.463270    0.197823
      2          6           0      -13.193380   -1.964978    0.357528
      3          6           0      -14.150305   -1.366251   -0.666975
      4          6           0      -14.197879    0.145991   -0.470499
      5          6           0      -12.839809    0.781151   -0.266473
      6          6           0      -11.699200    0.069135   -0.020735
      7          6           0      -12.878548    2.293672   -0.399781
      8          6           0      -11.014600   -1.853889    1.513038
      9          6           0      -11.087804   -2.209300   -0.996519
     10          6           0      -10.434650    0.808656    0.027994
     11          6           0       -9.147712    0.368476    0.051748
     12          6           0       -7.970994    1.218788    0.064208
     13          6           0       -6.738494    0.618732    0.070151
     14          6           0       -5.445853    1.237956    0.078711
     15          6           0       -4.280345    0.525898    0.081573
     16          6           0       -2.942615    1.063559    0.086650
     17          6           0       -1.885537    0.184962    0.087380
     18          6           0       -0.488371    0.479787    0.089053
     19          6           0        0.488347   -0.479969    0.088801
     20          6           0        1.885511   -0.185136    0.087475
     21          6           0        2.942600   -1.063720    0.086252
     22          6           0        4.280317   -0.526037    0.081579
     23          6           0        5.445840   -1.238065    0.078089
     24          6           0        6.738463   -0.618803    0.070000
     25          6           0        7.970984   -1.218814    0.063575
     26          6           0        9.147663   -0.368436    0.051849
     27          6           0       10.434624   -0.808549    0.027759
     28          6           0       -8.156553    2.717150    0.069156
     29          6           0       -2.769508    2.564166    0.089783
     30          6           0        2.769517   -2.564327    0.088440
     31          6           0        8.156583   -2.717179    0.067262
     32          6           0       11.699201   -0.069059   -0.020403
     33          6           0       11.734174    1.463486    0.197241
     34          6           0       13.193129    1.965583    0.356510
     35          6           0       14.150188    1.366019   -0.667374
     36          6           0       14.198042   -0.145980   -0.469211
     37          6           0       12.840010   -0.781172   -0.264991
     38          6           0       12.879257   -2.293768   -0.396971
     39          6           0       11.014549    1.854740    1.512348
     40          6           0       11.087391    2.208725   -0.997464
     41          1           0      -13.552321   -1.703956    1.363685
     42          1           0      -13.192047   -3.061404    0.303248
     43          1           0      -15.153264   -1.798105   -0.563126
     44          1           0      -13.813140   -1.597981   -1.685258
     45          1           0      -14.836724    0.392993    0.394939
     46          1           0      -14.685037    0.631223   -1.329306
     47          1           0      -12.325572    2.809643    0.392261
     48          1           0      -12.466482    2.633120   -1.360193
     49          1           0      -13.913425    2.649109   -0.353524
     50          1           0      -11.416556   -1.280703    2.356288
     51          1           0      -11.183867   -2.918184    1.719753
     52          1           0       -9.936176   -1.690791    1.488324
     53          1           0      -10.062409   -1.885242   -1.187849
     54          1           0      -11.067666   -3.288842   -0.800474
     55          1           0      -11.653264   -2.045445   -1.920085
     56          1           0      -10.553220    1.886292    0.000541
     57          1           0       -8.931611   -0.694439    0.047554
     58          1           0       -6.727213   -0.472334    0.066433
     59          1           0       -5.394175    2.323265    0.081444
     60          1           0       -4.354088   -0.562482    0.078481
     61          1           0       -2.136452   -0.876804    0.085428
     62          1           0       -0.172475    1.521613    0.089536
     63          1           0        0.172451   -1.521796    0.088568
     64          1           0        2.136416    0.876634    0.086232
     65          1           0        4.354044    0.562348    0.079364
     66          1           0        5.394192   -2.323379    0.079909
     67          1           0        6.727154    0.472266    0.067137
     68          1           0        8.931483    0.694460    0.048557
     69          1           0       10.553176   -1.886154   -0.000703
     70          1           0       -8.743395    3.036257    0.939921
     71          1           0       -7.209108    3.257895    0.093049
     72          1           0       -8.704911    3.047382   -0.822520
     73          1           0       -3.241932    3.013890   -0.792798
     74          1           0       -3.248496    3.010862    0.970351
     75          1           0       -1.721474    2.867936    0.094306
     76          1           0        1.721486   -2.868120    0.092840
     77          1           0        3.241891   -3.013511   -0.794442
     78          1           0        3.248565   -3.011550    0.968706
     79          1           0        7.209159   -3.257966    0.091008
     80          1           0        8.704687   -3.046679   -0.824841
     81          1           0        8.743681   -3.036978    0.937599
     82          1           0       13.191601    3.061957    0.301212
     83          1           0       13.552096    1.705563    1.362915
     84          1           0       15.153054    1.798199   -0.563974
     85          1           0       13.812978    1.596575   -1.685912
     86          1           0       14.836658   -0.391875    0.396706
     87          1           0       14.685561   -0.632101   -1.327317
     88          1           0       12.323558   -2.809301    0.393398
     89          1           0       12.470743   -2.633888   -1.358690
     90          1           0       13.914032   -2.649023   -0.346838
     91          1           0       11.416667    1.282028    2.355841
     92          1           0       11.183770    2.919158    1.718473
     93          1           0        9.936132    1.691574    1.487888
     94          1           0       10.062138    1.884180   -1.188707
     95          1           0       11.066849    3.288348   -0.801914
     96          1           0       11.652983    2.044667   -1.920915
 ---------------------------------------------------------------------

 SCF Done:  E(RPBE1PBE) =  -1556.38693136     A.U. after   14 cycles

 Excitation energies and oscillator strengths:

 Excited State   1:      Singlet-A      2.1660 eV  572.40 nm  f=4.2696  <S**2>=0.000
     148 -> 149        0.70793
 This state for optimization and/or second-order correction.
 Total Energy, E(TD-HF/TD-DFT) =  -1556.30733121
 Copying the excited state density for this state as the 1-particle RhoCI density.

 Excited State   2:      Singlet-A      2.6426 eV  469.17 nm  f=0.0001  <S**2>=0.000
     147 -> 149        0.58560
     148 -> 150       -0.38030

 Excited State   3:      Singlet-A      3.3088 eV  374.71 nm  f=0.0894  <S**2>=0.000
     146 -> 149        0.61396
     147 -> 150        0.10885
     148 -> 151        0.31641

 The electronic state is 1-A.
 Alpha  occ. eigenvalues --  -10.23905 -10.23904 -10.23694 -10.23693 -10.23485
 Alpha  occ. eigenvalues --  -10.23485 -10.23291 -10.23290 -10.22585 -10.22536
 Alpha  occ. eigenvalues --  -10.22535 -10.22513 -10.22279 -10.22278 -10.22270
 Alpha  occ. eigenvalues --  -10.22270 -10.22159 -10.22158 -10.22104 -10.22104
 Alpha  occ. eigenvalues --  -10.21971 -10.21970 -10.21870 -10.21870 -10.21692
 Alpha  occ. eigenvalues --  -10.21692 -10.21641 -10.21641 -10.21582 -10.21582
 Alpha  occ. eigenvalues --  -10.21529 -10.21529 -10.21362 -10.21361 -10.21136
 Alpha  occ. eigenvalues --  -10.21135 -10.20292 -10.20291 -10.20157 -10.20156
 Alpha  occ. eigenvalues --   -0.87710  -0.87710  -0.86318  -0.85787  -0.84826
 Alpha  occ. eigenvalues --   -0.84201  -0.81649  -0.81153  -0.81144  -0.80259
 Alpha  occ. eigenvalues --   -0.79620  -0.78013  -0.76863  -0.74633  -0.74321
 Alpha  occ. eigenvalues --   -0.72670  -0.71090  -0.71057  -0.70537  -0.70256
 Alpha  occ. eigenvalues --   -0.70137  -0.70130  -0.69539  -0.69494  -0.68747
 Alpha  occ. eigenvalues --   -0.65613  -0.63619  -0.62223  -0.60795  -0.58879
 Alpha  occ. eigenvalues --   -0.58093  -0.58093  -0.56701  -0.56296  -0.55146
 Alpha  occ. eigenvalues --   -0.54792  -0.54126  -0.52998  -0.51897  -0.51495
 Alpha  occ. eigenvalues --   -0.50104  -0.49393  -0.48954  -0.48754  -0.48195
 Alpha  occ. eigenvalues --   -0.47731  -0.46535  -0.46236  -0.45945  -0.45757
 Alpha  occ. eigenvalues --   -0.44692  -0.44402  -0.43947  -0.43654  -0.43602
 Alpha  occ. eigenvalues --   -0.43530  -0.43230  -0.43159  -0.42966  -0.42921
 Alpha  occ. eigenvalues --   -0.42895  -0.42834  -0.41689  -0.41657  -0.41585
 Alpha  occ. eigenvalues --   -0.41431  -0.40718  -0.40189  -0.40022  -0.39888
 Alpha  occ. eigenvalues --   -0.39780  -0.39684  -0.38982  -0.38818  -0.38353
 Alpha  occ. eigenvalues --   -0.38036  -0.37950  -0.37600  -0.37371  -0.37241
 Alpha  occ. eigenvalues --   -0.36760  -0.36288  -0.36046  -0.36044  -0.35862
 Alpha  occ. eigenvalues --   -0.35668  -0.35436  -0.35245  -0.35010  -0.34800
 Alpha  occ. eigenvalues --   -0.34648  -0.34543  -0.34180  -0.33583  -0.32978
 Alpha  occ. eigenvalues --   -0.32907  -0.31869  -0.31783  -0.31473  -0.30876
 Alpha  occ. eigenvalues --   -0.30168  -0.30146  -0.28939  -0.26600  -0.24734
 Alpha  occ. eigenvalues --   -0.22294  -0.19725  -0.17151
 Alpha virt. eigenvalues --   -0.08536  -0.05026  -0.02100   0.01031   0.03520
 Alpha virt. eigenvalues --    0.04731   0.04733   0.05305   0.05453   0.05867
 Alpha virt. eigenvalues --    0.06051   0.06202   0.06284   0.06583   0.07175

 Mulliken charges:
               1
     1  C   -0.334949
     2  C   -0.118799
     3  C   -0.167786
     4  C   -0.187491
     5  C   -0.013322
     6  C    0.148626
     7  C   -0.335395
     8  C   -0.241409
     9  C   -0.225536
    10  C   -0.077703
    11  C   -0.155815
    12  C    0.110922
    13  C   -0.127860
    14  C   -0.048968
    15  C   -0.130945
    16  C    0.083069
    17  C   -0.110674
    18  C   -0.057152
    19  C   -0.057154
    20  C   -0.110674
    21  C    0.083068
    22  C   -0.130942
    23  C   -0.048976
    24  C   -0.127859
    25  C    0.110923
    26  C   -0.155874
    27  C   -0.077572
    28  C   -0.318003
    29  C   -0.317088
    30  C   -0.317088
    31  C   -0.318006
    32  C    0.148525
    33  C   -0.334877
    34  C   -0.118783
    35  C   -0.167777
    36  C   -0.187568
    37  C   -0.013282
    38  C   -0.335331
    39  C   -0.241411
    40  C   -0.225560
    41  H    0.086341
    42  H    0.083845
    43  H    0.084386
    44  H    0.093204
    45  H    0.104684
    46  H    0.101020
    47  H    0.121002
    48  H    0.124429
    49  H    0.108300
    50  H    0.107902
    51  H    0.100561
    52  H    0.100653
    53  H    0.106079
    54  H    0.098547
    55  H    0.102116
    56  H    0.064774
    57  H    0.061604
    58  H    0.052776
    59  H    0.063701
    60  H    0.052303
    61  H    0.054256
    62  H    0.058460
    63  H    0.058461
    64  H    0.054256
    65  H    0.052302
    66  H    0.063699
    67  H    0.052774
    68  H    0.061603
    69  H    0.064759
    70  H    0.121965
    71  H    0.102018
    72  H    0.122229
    73  H    0.122503
    74  H    0.122528
    75  H    0.104083
    76  H    0.104084
    77  H    0.122501
    78  H    0.122530
    79  H    0.102020
    80  H    0.122235
    81  H    0.121959
    82  H    0.083841
    83  H    0.086337
    84  H    0.084387
    85  H    0.093204
    86  H    0.104682
    87  H    0.101014
    88  H    0.120957
    89  H    0.124391
    90  H    0.108343
    91  H    0.107910
    92  H    0.100565
    93  H    0.100646
    94  H    0.106107
    95  H    0.098547
    96  H    0.102108
 Sum of Mulliken charges =  -0.00000

 Dipole moment (field-independent basis, Debye):
    X=              0.0012    Y=             -0.0000    Z=             -0.3162  Tot=              0.3162
 Quadrupole moment (field-independent basis, Debye-Ang):
   XX=           -186.2596   YY=           -231.9175   ZZ=           -259.8188
   XY=            -11.0789   XZ=             -0.0001   YZ=              0.0082

 Normal termination of Gaussian 16 at Wed Oct 25 13:18:01 2023.
